VARIABLES = "X", "Y", "U", "V"
ZONE I=200, J=100, DATAPACKING=BLOCK
  0.00000000  0.01005025  0.02010050  0.03015075  0.04020101  0.05025126  0.06030151  0.07035176  0.08040201  0.09045226  0.10050251  0.11055276  0.12060302  0.13065327  0.14070352  0.15075377  0.16080402  0.17085427  0.18090452  0.19095477  0.20100503  0.21105528  0.22110553  0.23115578  0.24120603  0.25125628  0.26130653  0.27135678  0.28140704  0.29145729  0.30150754  0.31155779  0.32160804  0.33165829  0.34170854  0.35175879  0.36180905  0.37185930  0.38190955  0.39195980  0.40201005  0.41206030  0.42211055  0.43216080  0.44221106  0.45226131  0.46231156  0.47236181  0.48241206  0.49246231  0.50251256  0.51256281  0.52261307  0.53266332  0.54271357  0.55276382  0.56281407  0.57286432  0.58291457  0.59296482  0.60301508  0.61306533  0.62311558  0.63316583  0.64321608  0.65326633  0.66331658  0.67336683  0.68341709  0.69346734  0.70351759  0.71356784  0.72361809  0.73366834  0.74371859  0.75376884  0.76381910  0.77386935  0.78391960  0.79396985  0.80402010  0.81407035  0.82412060  0.83417085  0.84422111  0.85427136  0.86432161  0.87437186  0.88442211  0.89447236  0.90452261  0.91457286  0.92462312  0.93467337  0.94472362  0.95477387  0.96482412  0.97487437  0.98492462  0.99497487  1.00502513  1.01507538  1.02512563  1.03517588  1.04522613  1.05527638  1.06532663  1.07537688  1.08542714  1.09547739  1.10552764  1.11557789  1.12562814  1.13567839  1.14572864  1.15577889  1.16582915  1.17587940  1.18592965  1.19597990  1.20603015  1.21608040  1.22613065  1.23618090  1.24623116  1.25628141  1.26633166  1.27638191  1.28643216  1.29648241  1.30653266  1.31658291  1.32663317  1.33668342  1.34673367  1.35678392  1.36683417  1.37688442  1.38693467  1.39698492  1.40703518  1.41708543  1.42713568  1.43718593  1.44723618  1.45728643  1.46733668  1.47738693  1.48743719  1.49748744  1.50753769  1.51758794  1.52763819  1.53768844  1.54773869  1.55778894  1.56783920  1.57788945  1.58793970  1.59798995  1.60804020  1.61809045  1.62814070  1.63819095  1.64824121  1.65829146  1.66834171  1.67839196  1.68844221  1.69849246  1.70854271  1.71859296  1.72864322  1.73869347  1.74874372  1.75879397  1.76884422  1.77889447  1.78894472  1.79899497  1.80904523  1.81909548  1.82914573  1.83919598  1.84924623  1.85929648  1.86934673  1.87939698  1.88944724  1.89949749  1.90954774  1.91959799  1.92964824  1.93969849  1.94974874  1.95979899  1.96984925  1.97989950  1.98994975  2.00000000  0.00000000  0.01005025  0.02010050  0.03015075  0.04020101  0.05025126  0.06030151  0.07035176  0.08040201  0.09045226  0.10050251  0.11055276  0.12060302  0.13065327  0.14070352  0.15075377  0.16080402  0.17085427  0.18090452  0.19095477  0.20100503  0.21105528  0.22110553  0.23115578  0.24120603  0.25125628  0.26130653  0.27135678  0.28140704  0.29145729  0.30150754  0.31155779  0.32160804  0.33165829  0.34170854  0.35175879  0.36180905  0.37185930  0.38190955  0.39195980  0.40201005  0.41206030  0.42211055  0.43216080  0.44221106  0.45226131  0.46231156  0.47236181  0.48241206  0.49246231  0.50251256  0.51256281  0.52261307  0.53266332  0.54271357  0.55276382  0.56281407  0.57286432  0.58291457  0.59296482  0.60301508  0.61306533  0.62311558  0.63316583  0.64321608  0.65326633  0.66331658  0.67336683  0.68341709  0.69346734  0.70351759  0.71356784  0.72361809  0.73366834  0.74371859  0.75376884  0.76381910  0.77386935  0.78391960  0.79396985  0.80402010  0.81407035  0.82412060  0.83417085  0.84422111  0.85427136  0.86432161  0.87437186  0.88442211  0.89447236  0.90452261  0.91457286  0.92462312  0.93467337  0.94472362  0.95477387  0.96482412  0.97487437  0.98492462  0.99497487  1.00502513  1.01507538  1.02512563  1.03517588  1.04522613  1.05527638  1.06532663  1.07537688  1.08542714  1.09547739  1.10552764  1.11557789  1.12562814  1.13567839  1.14572864  1.15577889  1.16582915  1.17587940  1.18592965  1.19597990  1.20603015  1.21608040  1.22613065  1.23618090  1.24623116  1.25628141  1.26633166  1.27638191  1.28643216  1.29648241  1.30653266  1.31658291  1.32663317  1.33668342  1.34673367  1.35678392  1.36683417  1.37688442  1.38693467  1.39698492  1.40703518  1.41708543  1.42713568  1.43718593  1.44723618  1.45728643  1.46733668  1.47738693  1.48743719  1.49748744  1.50753769  1.51758794  1.52763819  1.53768844  1.54773869  1.55778894  1.56783920  1.57788945  1.58793970  1.59798995  1.60804020  1.61809045  1.62814070  1.63819095  1.64824121  1.65829146  1.66834171  1.67839196  1.68844221  1.69849246  1.70854271  1.71859296  1.72864322  1.73869347  1.74874372  1.75879397  1.76884422  1.77889447  1.78894472  1.79899497  1.80904523  1.81909548  1.82914573  1.83919598  1.84924623  1.85929648  1.86934673  1.87939698  1.88944724  1.89949749  1.90954774  1.91959799  1.92964824  1.93969849  1.94974874  1.95979899  1.96984925  1.97989950  1.98994975  2.00000000  0.00000000  0.01005025  0.02010050  0.03015075  0.04020101  0.05025126  0.06030151  0.07035176  0.08040201  0.09045226  0.10050251  0.11055276  0.12060302  0.13065327  0.14070352  0.15075377  0.16080402  0.17085427  0.18090452  0.19095477  0.20100503  0.21105528  0.22110553  0.23115578  0.24120603  0.25125628  0.26130653  0.27135678  0.28140704  0.29145729  0.30150754  0.31155779  0.32160804  0.33165829  0.34170854  0.35175879  0.36180905  0.37185930  0.38190955  0.39195980  0.40201005  0.41206030  0.42211055  0.43216080  0.44221106  0.45226131  0.46231156  0.47236181  0.48241206  0.49246231  0.50251256  0.51256281  0.52261307  0.53266332  0.54271357  0.55276382  0.56281407  0.57286432  0.58291457  0.59296482  0.60301508  0.61306533  0.62311558  0.63316583  0.64321608  0.65326633  0.66331658  0.67336683  0.68341709  0.69346734  0.70351759  0.71356784  0.72361809  0.73366834  0.74371859  0.75376884  0.76381910  0.77386935  0.78391960  0.79396985  0.80402010  0.81407035  0.82412060  0.83417085  0.84422111  0.85427136  0.86432161  0.87437186  0.88442211  0.89447236  0.90452261  0.91457286  0.92462312  0.93467337  0.94472362  0.95477387  0.96482412  0.97487437  0.98492462  0.99497487  1.00502513  1.01507538  1.02512563  1.03517588  1.04522613  1.05527638  1.06532663  1.07537688  1.08542714  1.09547739  1.10552764  1.11557789  1.12562814  1.13567839  1.14572864  1.15577889  1.16582915  1.17587940  1.18592965  1.19597990  1.20603015  1.21608040  1.22613065  1.23618090  1.24623116  1.25628141  1.26633166  1.27638191  1.28643216  1.29648241  1.30653266  1.31658291  1.32663317  1.33668342  1.34673367  1.35678392  1.36683417  1.37688442  1.38693467  1.39698492  1.40703518  1.41708543  1.42713568  1.43718593  1.44723618  1.45728643  1.46733668  1.47738693  1.48743719  1.49748744  1.50753769  1.51758794  1.52763819  1.53768844  1.54773869  1.55778894  1.56783920  1.57788945  1.58793970  1.59798995  1.60804020  1.61809045  1.62814070  1.63819095  1.64824121  1.65829146  1.66834171  1.67839196  1.68844221  1.69849246  1.70854271  1.71859296  1.72864322  1.73869347  1.74874372  1.75879397  1.76884422  1.77889447  1.78894472  1.79899497  1.80904523  1.81909548  1.82914573  1.83919598  1.84924623  1.85929648  1.86934673  1.87939698  1.88944724  1.89949749  1.90954774  1.91959799  1.92964824  1.93969849  1.94974874  1.95979899  1.96984925  1.97989950  1.98994975  2.00000000  0.00000000  0.01005025  0.02010050  0.03015075  0.04020101  0.05025126  0.06030151  0.07035176  0.08040201  0.09045226  0.10050251  0.11055276  0.12060302  0.13065327  0.14070352  0.15075377  0.16080402  0.17085427  0.18090452  0.19095477  0.20100503  0.21105528  0.22110553  0.23115578  0.24120603  0.25125628  0.26130653  0.27135678  0.28140704  0.29145729  0.30150754  0.31155779  0.32160804  0.33165829  0.34170854  0.35175879  0.36180905  0.37185930  0.38190955  0.39195980  0.40201005  0.41206030  0.42211055  0.43216080  0.44221106  0.45226131  0.46231156  0.47236181  0.48241206  0.49246231  0.50251256  0.51256281  0.52261307  0.53266332  0.54271357  0.55276382  0.56281407  0.57286432  0.58291457  0.59296482  0.60301508  0.61306533  0.62311558  0.63316583  0.64321608  0.65326633  0.66331658  0.67336683  0.68341709  0.69346734  0.70351759  0.71356784  0.72361809  0.73366834  0.74371859  0.75376884  0.76381910  0.77386935  0.78391960  0.79396985  0.80402010  0.81407035  0.82412060  0.83417085  0.84422111  0.85427136  0.86432161  0.87437186  0.88442211  0.89447236  0.90452261  0.91457286  0.92462312  0.93467337  0.94472362  0.95477387  0.96482412  0.97487437  0.98492462  0.99497487  1.00502513  1.01507538  1.02512563  1.03517588  1.04522613  1.05527638  1.06532663  1.07537688  1.08542714  1.09547739  1.10552764  1.11557789  1.12562814  1.13567839  1.14572864  1.15577889  1.16582915  1.17587940  1.18592965  1.19597990  1.20603015  1.21608040  1.22613065  1.23618090  1.24623116  1.25628141  1.26633166  1.27638191  1.28643216  1.29648241  1.30653266  1.31658291  1.32663317  1.33668342  1.34673367  1.35678392  1.36683417  1.37688442  1.38693467  1.39698492  1.40703518  1.41708543  1.42713568  1.43718593  1.44723618  1.45728643  1.46733668  1.47738693  1.48743719  1.49748744  1.50753769  1.51758794  1.52763819  1.53768844  1.54773869  1.55778894  1.56783920  1.57788945  1.58793970  1.59798995  1.60804020  1.61809045  1.62814070  1.63819095  1.64824121  1.65829146  1.66834171  1.67839196  1.68844221  1.69849246  1.70854271  1.71859296  1.72864322  1.73869347  1.74874372  1.75879397  1.76884422  1.77889447  1.78894472  1.79899497  1.80904523  1.81909548  1.82914573  1.83919598  1.84924623  1.85929648  1.86934673  1.87939698  1.88944724  1.89949749  1.90954774  1.91959799  1.92964824  1.93969849  1.94974874  1.95979899  1.96984925  1.97989950  1.98994975  2.00000000  0.00000000  0.01005025  0.02010050  0.03015075  0.04020101  0.05025126  0.06030151  0.07035176  0.08040201  0.09045226  0.10050251  0.11055276  0.12060302  0.13065327  0.14070352  0.15075377  0.16080402  0.17085427  0.18090452  0.19095477  0.20100503  0.21105528  0.22110553  0.23115578  0.24120603  0.25125628  0.26130653  0.27135678  0.28140704  0.29145729  0.30150754  0.31155779  0.32160804  0.33165829  0.34170854  0.35175879  0.36180905  0.37185930  0.38190955  0.39195980  0.40201005  0.41206030  0.42211055  0.43216080  0.44221106  0.45226131  0.46231156  0.47236181  0.48241206  0.49246231  0.50251256  0.51256281  0.52261307  0.53266332  0.54271357  0.55276382  0.56281407  0.57286432  0.58291457  0.59296482  0.60301508  0.61306533  0.62311558  0.63316583  0.64321608  0.65326633  0.66331658  0.67336683  0.68341709  0.69346734  0.70351759  0.71356784  0.72361809  0.73366834  0.74371859  0.75376884  0.76381910  0.77386935  0.78391960  0.79396985  0.80402010  0.81407035  0.82412060  0.83417085  0.84422111  0.85427136  0.86432161  0.87437186  0.88442211  0.89447236  0.90452261  0.91457286  0.92462312  0.93467337  0.94472362  0.95477387  0.96482412  0.97487437  0.98492462  0.99497487  1.00502513  1.01507538  1.02512563  1.03517588  1.04522613  1.05527638  1.06532663  1.07537688  1.08542714  1.09547739  1.10552764  1.11557789  1.12562814  1.13567839  1.14572864  1.15577889  1.16582915  1.17587940  1.18592965  1.19597990  1.20603015  1.21608040  1.22613065  1.23618090  1.24623116  1.25628141  1.26633166  1.27638191  1.28643216  1.29648241  1.30653266  1.31658291  1.32663317  1.33668342  1.34673367  1.35678392  1.36683417  1.37688442  1.38693467  1.39698492  1.40703518  1.41708543  1.42713568  1.43718593  1.44723618  1.45728643  1.46733668  1.47738693  1.48743719  1.49748744  1.50753769  1.51758794  1.52763819  1.53768844  1.54773869  1.55778894  1.56783920  1.57788945  1.58793970  1.59798995  1.60804020  1.61809045  1.62814070  1.63819095  1.64824121  1.65829146  1.66834171  1.67839196  1.68844221  1.69849246  1.70854271  1.71859296  1.72864322  1.73869347  1.74874372  1.75879397  1.76884422  1.77889447  1.78894472  1.79899497  1.80904523  1.81909548  1.82914573  1.83919598  1.84924623  1.85929648  1.86934673  1.87939698  1.88944724  1.89949749  1.90954774  1.91959799  1.92964824  1.93969849  1.94974874  1.95979899  1.96984925  1.97989950  1.98994975  2.00000000  0.00000000  0.01005025  0.02010050  0.03015075  0.04020101  0.05025126  0.06030151  0.07035176  0.08040201  0.09045226  0.10050251  0.11055276  0.12060302  0.13065327  0.14070352  0.15075377  0.16080402  0.17085427  0.18090452  0.19095477  0.20100503  0.21105528  0.22110553  0.23115578  0.24120603  0.25125628  0.26130653  0.27135678  0.28140704  0.29145729  0.30150754  0.31155779  0.32160804  0.33165829  0.34170854  0.35175879  0.36180905  0.37185930  0.38190955  0.39195980  0.40201005  0.41206030  0.42211055  0.43216080  0.44221106  0.45226131  0.46231156  0.47236181  0.48241206  0.49246231  0.50251256  0.51256281  0.52261307  0.53266332  0.54271357  0.55276382  0.56281407  0.57286432  0.58291457  0.59296482  0.60301508  0.61306533  0.62311558  0.63316583  0.64321608  0.65326633  0.66331658  0.67336683  0.68341709  0.69346734  0.70351759  0.71356784  0.72361809  0.73366834  0.74371859  0.75376884  0.76381910  0.77386935  0.78391960  0.79396985  0.80402010  0.81407035  0.82412060  0.83417085  0.84422111  0.85427136  0.86432161  0.87437186  0.88442211  0.89447236  0.90452261  0.91457286  0.92462312  0.93467337  0.94472362  0.95477387  0.96482412  0.97487437  0.98492462  0.99497487  1.00502513  1.01507538  1.02512563  1.03517588  1.04522613  1.05527638  1.06532663  1.07537688  1.08542714  1.09547739  1.10552764  1.11557789  1.12562814  1.13567839  1.14572864  1.15577889  1.16582915  1.17587940  1.18592965  1.19597990  1.20603015  1.21608040  1.22613065  1.23618090  1.24623116  1.25628141  1.26633166  1.27638191  1.28643216  1.29648241  1.30653266  1.31658291  1.32663317  1.33668342  1.34673367  1.35678392  1.36683417  1.37688442  1.38693467  1.39698492  1.40703518  1.41708543  1.42713568  1.43718593  1.44723618  1.45728643  1.46733668  1.47738693  1.48743719  1.49748744  1.50753769  1.51758794  1.52763819  1.53768844  1.54773869  1.55778894  1.56783920  1.57788945  1.58793970  1.59798995  1.60804020  1.61809045  1.62814070  1.63819095  1.64824121  1.65829146  1.66834171  1.67839196  1.68844221  1.69849246  1.70854271  1.71859296  1.72864322  1.73869347  1.74874372  1.75879397  1.76884422  1.77889447  1.78894472  1.79899497  1.80904523  1.81909548  1.82914573  1.83919598  1.84924623  1.85929648  1.86934673  1.87939698  1.88944724  1.89949749  1.90954774  1.91959799  1.92964824  1.93969849  1.94974874  1.95979899  1.96984925  1.97989950  1.98994975  2.00000000  0.00000000  0.01005025  0.02010050  0.03015075  0.04020101  0.05025126  0.06030151  0.07035176  0.08040201  0.09045226  0.10050251  0.11055276  0.12060302  0.13065327  0.14070352  0.15075377  0.16080402  0.17085427  0.18090452  0.19095477  0.20100503  0.21105528  0.22110553  0.23115578  0.24120603  0.25125628  0.26130653  0.27135678  0.28140704  0.29145729  0.30150754  0.31155779  0.32160804  0.33165829  0.34170854  0.35175879  0.36180905  0.37185930  0.38190955  0.39195980  0.40201005  0.41206030  0.42211055  0.43216080  0.44221106  0.45226131  0.46231156  0.47236181  0.48241206  0.49246231  0.50251256  0.51256281  0.52261307  0.53266332  0.54271357  0.55276382  0.56281407  0.57286432  0.58291457  0.59296482  0.60301508  0.61306533  0.62311558  0.63316583  0.64321608  0.65326633  0.66331658  0.67336683  0.68341709  0.69346734  0.70351759  0.71356784  0.72361809  0.73366834  0.74371859  0.75376884  0.76381910  0.77386935  0.78391960  0.79396985  0.80402010  0.81407035  0.82412060  0.83417085  0.84422111  0.85427136  0.86432161  0.87437186  0.88442211  0.89447236  0.90452261  0.91457286  0.92462312  0.93467337  0.94472362  0.95477387  0.96482412  0.97487437  0.98492462  0.99497487  1.00502513  1.01507538  1.02512563  1.03517588  1.04522613  1.05527638  1.06532663  1.07537688  1.08542714  1.09547739  1.10552764  1.11557789  1.12562814  1.13567839  1.14572864  1.15577889  1.16582915  1.17587940  1.18592965  1.19597990  1.20603015  1.21608040  1.22613065  1.23618090  1.24623116  1.25628141  1.26633166  1.27638191  1.28643216  1.29648241  1.30653266  1.31658291  1.32663317  1.33668342  1.34673367  1.35678392  1.36683417  1.37688442  1.38693467  1.39698492  1.40703518  1.41708543  1.42713568  1.43718593  1.44723618  1.45728643  1.46733668  1.47738693  1.48743719  1.49748744  1.50753769  1.51758794  1.52763819  1.53768844  1.54773869  1.55778894  1.56783920  1.57788945  1.58793970  1.59798995  1.60804020  1.61809045  1.62814070  1.63819095  1.64824121  1.65829146  1.66834171  1.67839196  1.68844221  1.69849246  1.70854271  1.71859296  1.72864322  1.73869347  1.74874372  1.75879397  1.76884422  1.77889447  1.78894472  1.79899497  1.80904523  1.81909548  1.82914573  1.83919598  1.84924623  1.85929648  1.86934673  1.87939698  1.88944724  1.89949749  1.90954774  1.91959799  1.92964824  1.93969849  1.94974874  1.95979899  1.96984925  1.97989950  1.98994975  2.00000000  0.00000000  0.01005025  0.02010050  0.03015075  0.04020101  0.05025126  0.06030151  0.07035176  0.08040201  0.09045226  0.10050251  0.11055276  0.12060302  0.13065327  0.14070352  0.15075377  0.16080402  0.17085427  0.18090452  0.19095477  0.20100503  0.21105528  0.22110553  0.23115578  0.24120603  0.25125628  0.26130653  0.27135678  0.28140704  0.29145729  0.30150754  0.31155779  0.32160804  0.33165829  0.34170854  0.35175879  0.36180905  0.37185930  0.38190955  0.39195980  0.40201005  0.41206030  0.42211055  0.43216080  0.44221106  0.45226131  0.46231156  0.47236181  0.48241206  0.49246231  0.50251256  0.51256281  0.52261307  0.53266332  0.54271357  0.55276382  0.56281407  0.57286432  0.58291457  0.59296482  0.60301508  0.61306533  0.62311558  0.63316583  0.64321608  0.65326633  0.66331658  0.67336683  0.68341709  0.69346734  0.70351759  0.71356784  0.72361809  0.73366834  0.74371859  0.75376884  0.76381910  0.77386935  0.78391960  0.79396985  0.80402010  0.81407035  0.82412060  0.83417085  0.84422111  0.85427136  0.86432161  0.87437186  0.88442211  0.89447236  0.90452261  0.91457286  0.92462312  0.93467337  0.94472362  0.95477387  0.96482412  0.97487437  0.98492462  0.99497487  1.00502513  1.01507538  1.02512563  1.03517588  1.04522613  1.05527638  1.06532663  1.07537688  1.08542714  1.09547739  1.10552764  1.11557789  1.12562814  1.13567839  1.14572864  1.15577889  1.16582915  1.17587940  1.18592965  1.19597990  1.20603015  1.21608040  1.22613065  1.23618090  1.24623116  1.25628141  1.26633166  1.27638191  1.28643216  1.29648241  1.30653266  1.31658291  1.32663317  1.33668342  1.34673367  1.35678392  1.36683417  1.37688442  1.38693467  1.39698492  1.40703518  1.41708543  1.42713568  1.43718593  1.44723618  1.45728643  1.46733668  1.47738693  1.48743719  1.49748744  1.50753769  1.51758794  1.52763819  1.53768844  1.54773869  1.55778894  1.56783920  1.57788945  1.58793970  1.59798995  1.60804020  1.61809045  1.62814070  1.63819095  1.64824121  1.65829146  1.66834171  1.67839196  1.68844221  1.69849246  1.70854271  1.71859296  1.72864322  1.73869347  1.74874372  1.75879397  1.76884422  1.77889447  1.78894472  1.79899497  1.80904523  1.81909548  1.82914573  1.83919598  1.84924623  1.85929648  1.86934673  1.87939698  1.88944724  1.89949749  1.90954774  1.91959799  1.92964824  1.93969849  1.94974874  1.95979899  1.96984925  1.97989950  1.98994975  2.00000000  0.00000000  0.01005025  0.02010050  0.03015075  0.04020101  0.05025126  0.06030151  0.07035176  0.08040201  0.09045226  0.10050251  0.11055276  0.12060302  0.13065327  0.14070352  0.15075377  0.16080402  0.17085427  0.18090452  0.19095477  0.20100503  0.21105528  0.22110553  0.23115578  0.24120603  0.25125628  0.26130653  0.27135678  0.28140704  0.29145729  0.30150754  0.31155779  0.32160804  0.33165829  0.34170854  0.35175879  0.36180905  0.37185930  0.38190955  0.39195980  0.40201005  0.41206030  0.42211055  0.43216080  0.44221106  0.45226131  0.46231156  0.47236181  0.48241206  0.49246231  0.50251256  0.51256281  0.52261307  0.53266332  0.54271357  0.55276382  0.56281407  0.57286432  0.58291457  0.59296482  0.60301508  0.61306533  0.62311558  0.63316583  0.64321608  0.65326633  0.66331658  0.67336683  0.68341709  0.69346734  0.70351759  0.71356784  0.72361809  0.73366834  0.74371859  0.75376884  0.76381910  0.77386935  0.78391960  0.79396985  0.80402010  0.81407035  0.82412060  0.83417085  0.84422111  0.85427136  0.86432161  0.87437186  0.88442211  0.89447236  0.90452261  0.91457286  0.92462312  0.93467337  0.94472362  0.95477387  0.96482412  0.97487437  0.98492462  0.99497487  1.00502513  1.01507538  1.02512563  1.03517588  1.04522613  1.05527638  1.06532663  1.07537688  1.08542714  1.09547739  1.10552764  1.11557789  1.12562814  1.13567839  1.14572864  1.15577889  1.16582915  1.17587940  1.18592965  1.19597990  1.20603015  1.21608040  1.22613065  1.23618090  1.24623116  1.25628141  1.26633166  1.27638191  1.28643216  1.29648241  1.30653266  1.31658291  1.32663317  1.33668342  1.34673367  1.35678392  1.36683417  1.37688442  1.38693467  1.39698492  1.40703518  1.41708543  1.42713568  1.43718593  1.44723618  1.45728643  1.46733668  1.47738693  1.48743719  1.49748744  1.50753769  1.51758794  1.52763819  1.53768844  1.54773869  1.55778894  1.56783920  1.57788945  1.58793970  1.59798995  1.60804020  1.61809045  1.62814070  1.63819095  1.64824121  1.65829146  1.66834171  1.67839196  1.68844221  1.69849246  1.70854271  1.71859296  1.72864322  1.73869347  1.74874372  1.75879397  1.76884422  1.77889447  1.78894472  1.79899497  1.80904523  1.81909548  1.82914573  1.83919598  1.84924623  1.85929648  1.86934673  1.87939698  1.88944724  1.89949749  1.90954774  1.91959799  1.92964824  1.93969849  1.94974874  1.95979899  1.96984925  1.97989950  1.98994975  2.00000000  0.00000000  0.01005025  0.02010050  0.03015075  0.04020101  0.05025126  0.06030151  0.07035176  0.08040201  0.09045226  0.10050251  0.11055276  0.12060302  0.13065327  0.14070352  0.15075377  0.16080402  0.17085427  0.18090452  0.19095477  0.20100503  0.21105528  0.22110553  0.23115578  0.24120603  0.25125628  0.26130653  0.27135678  0.28140704  0.29145729  0.30150754  0.31155779  0.32160804  0.33165829  0.34170854  0.35175879  0.36180905  0.37185930  0.38190955  0.39195980  0.40201005  0.41206030  0.42211055  0.43216080  0.44221106  0.45226131  0.46231156  0.47236181  0.48241206  0.49246231  0.50251256  0.51256281  0.52261307  0.53266332  0.54271357  0.55276382  0.56281407  0.57286432  0.58291457  0.59296482  0.60301508  0.61306533  0.62311558  0.63316583  0.64321608  0.65326633  0.66331658  0.67336683  0.68341709  0.69346734  0.70351759  0.71356784  0.72361809  0.73366834  0.74371859  0.75376884  0.76381910  0.77386935  0.78391960  0.79396985  0.80402010  0.81407035  0.82412060  0.83417085  0.84422111  0.85427136  0.86432161  0.87437186  0.88442211  0.89447236  0.90452261  0.91457286  0.92462312  0.93467337  0.94472362  0.95477387  0.96482412  0.97487437  0.98492462  0.99497487  1.00502513  1.01507538  1.02512563  1.03517588  1.04522613  1.05527638  1.06532663  1.07537688  1.08542714  1.09547739  1.10552764  1.11557789  1.12562814  1.13567839  1.14572864  1.15577889  1.16582915  1.17587940  1.18592965  1.19597990  1.20603015  1.21608040  1.22613065  1.23618090  1.24623116  1.25628141  1.26633166  1.27638191  1.28643216  1.29648241  1.30653266  1.31658291  1.32663317  1.33668342  1.34673367  1.35678392  1.36683417  1.37688442  1.38693467  1.39698492  1.40703518  1.41708543  1.42713568  1.43718593  1.44723618  1.45728643  1.46733668  1.47738693  1.48743719  1.49748744  1.50753769  1.51758794  1.52763819  1.53768844  1.54773869  1.55778894  1.56783920  1.57788945  1.58793970  1.59798995  1.60804020  1.61809045  1.62814070  1.63819095  1.64824121  1.65829146  1.66834171  1.67839196  1.68844221  1.69849246  1.70854271  1.71859296  1.72864322  1.73869347  1.74874372  1.75879397  1.76884422  1.77889447  1.78894472  1.79899497  1.80904523  1.81909548  1.82914573  1.83919598  1.84924623  1.85929648  1.86934673  1.87939698  1.88944724  1.89949749  1.90954774  1.91959799  1.92964824  1.93969849  1.94974874  1.95979899  1.96984925  1.97989950  1.98994975  2.00000000  0.00000000  0.01005025  0.02010050  0.03015075  0.04020101  0.05025126  0.06030151  0.07035176  0.08040201  0.09045226  0.10050251  0.11055276  0.12060302  0.13065327  0.14070352  0.15075377  0.16080402  0.17085427  0.18090452  0.19095477  0.20100503  0.21105528  0.22110553  0.23115578  0.24120603  0.25125628  0.26130653  0.27135678  0.28140704  0.29145729  0.30150754  0.31155779  0.32160804  0.33165829  0.34170854  0.35175879  0.36180905  0.37185930  0.38190955  0.39195980  0.40201005  0.41206030  0.42211055  0.43216080  0.44221106  0.45226131  0.46231156  0.47236181  0.48241206  0.49246231  0.50251256  0.51256281  0.52261307  0.53266332  0.54271357  0.55276382  0.56281407  0.57286432  0.58291457  0.59296482  0.60301508  0.61306533  0.62311558  0.63316583  0.64321608  0.65326633  0.66331658  0.67336683  0.68341709  0.69346734  0.70351759  0.71356784  0.72361809  0.73366834  0.74371859  0.75376884  0.76381910  0.77386935  0.78391960  0.79396985  0.80402010  0.81407035  0.82412060  0.83417085  0.84422111  0.85427136  0.86432161  0.87437186  0.88442211  0.89447236  0.90452261  0.91457286  0.92462312  0.93467337  0.94472362  0.95477387  0.96482412  0.97487437  0.98492462  0.99497487  1.00502513  1.01507538  1.02512563  1.03517588  1.04522613  1.05527638  1.06532663  1.07537688  1.08542714  1.09547739  1.10552764  1.11557789  1.12562814  1.13567839  1.14572864  1.15577889  1.16582915  1.17587940  1.18592965  1.19597990  1.20603015  1.21608040  1.22613065  1.23618090  1.24623116  1.25628141  1.26633166  1.27638191  1.28643216  1.29648241  1.30653266  1.31658291  1.32663317  1.33668342  1.34673367  1.35678392  1.36683417  1.37688442  1.38693467  1.39698492  1.40703518  1.41708543  1.42713568  1.43718593  1.44723618  1.45728643  1.46733668  1.47738693  1.48743719  1.49748744  1.50753769  1.51758794  1.52763819  1.53768844  1.54773869  1.55778894  1.56783920  1.57788945  1.58793970  1.59798995  1.60804020  1.61809045  1.62814070  1.63819095  1.64824121  1.65829146  1.66834171  1.67839196  1.68844221  1.69849246  1.70854271  1.71859296  1.72864322  1.73869347  1.74874372  1.75879397  1.76884422  1.77889447  1.78894472  1.79899497  1.80904523  1.81909548  1.82914573  1.83919598  1.84924623  1.85929648  1.86934673  1.87939698  1.88944724  1.89949749  1.90954774  1.91959799  1.92964824  1.93969849  1.94974874  1.95979899  1.96984925  1.97989950  1.98994975  2.00000000  0.00000000  0.01005025  0.02010050  0.03015075  0.04020101  0.05025126  0.06030151  0.07035176  0.08040201  0.09045226  0.10050251  0.11055276  0.12060302  0.13065327  0.14070352  0.15075377  0.16080402  0.17085427  0.18090452  0.19095477  0.20100503  0.21105528  0.22110553  0.23115578  0.24120603  0.25125628  0.26130653  0.27135678  0.28140704  0.29145729  0.30150754  0.31155779  0.32160804  0.33165829  0.34170854  0.35175879  0.36180905  0.37185930  0.38190955  0.39195980  0.40201005  0.41206030  0.42211055  0.43216080  0.44221106  0.45226131  0.46231156  0.47236181  0.48241206  0.49246231  0.50251256  0.51256281  0.52261307  0.53266332  0.54271357  0.55276382  0.56281407  0.57286432  0.58291457  0.59296482  0.60301508  0.61306533  0.62311558  0.63316583  0.64321608  0.65326633  0.66331658  0.67336683  0.68341709  0.69346734  0.70351759  0.71356784  0.72361809  0.73366834  0.74371859  0.75376884  0.76381910  0.77386935  0.78391960  0.79396985  0.80402010  0.81407035  0.82412060  0.83417085  0.84422111  0.85427136  0.86432161  0.87437186  0.88442211  0.89447236  0.90452261  0.91457286  0.92462312  0.93467337  0.94472362  0.95477387  0.96482412  0.97487437  0.98492462  0.99497487  1.00502513  1.01507538  1.02512563  1.03517588  1.04522613  1.05527638  1.06532663  1.07537688  1.08542714  1.09547739  1.10552764  1.11557789  1.12562814  1.13567839  1.14572864  1.15577889  1.16582915  1.17587940  1.18592965  1.19597990  1.20603015  1.21608040  1.22613065  1.23618090  1.24623116  1.25628141  1.26633166  1.27638191  1.28643216  1.29648241  1.30653266  1.31658291  1.32663317  1.33668342  1.34673367  1.35678392  1.36683417  1.37688442  1.38693467  1.39698492  1.40703518  1.41708543  1.42713568  1.43718593  1.44723618  1.45728643  1.46733668  1.47738693  1.48743719  1.49748744  1.50753769  1.51758794  1.52763819  1.53768844  1.54773869  1.55778894  1.56783920  1.57788945  1.58793970  1.59798995  1.60804020  1.61809045  1.62814070  1.63819095  1.64824121  1.65829146  1.66834171  1.67839196  1.68844221  1.69849246  1.70854271  1.71859296  1.72864322  1.73869347  1.74874372  1.75879397  1.76884422  1.77889447  1.78894472  1.79899497  1.80904523  1.81909548  1.82914573  1.83919598  1.84924623  1.85929648  1.86934673  1.87939698  1.88944724  1.89949749  1.90954774  1.91959799  1.92964824  1.93969849  1.94974874  1.95979899  1.96984925  1.97989950  1.98994975  2.00000000  0.00000000  0.01005025  0.02010050  0.03015075  0.04020101  0.05025126  0.06030151  0.07035176  0.08040201  0.09045226  0.10050251  0.11055276  0.12060302  0.13065327  0.14070352  0.15075377  0.16080402  0.17085427  0.18090452  0.19095477  0.20100503  0.21105528  0.22110553  0.23115578  0.24120603  0.25125628  0.26130653  0.27135678  0.28140704  0.29145729  0.30150754  0.31155779  0.32160804  0.33165829  0.34170854  0.35175879  0.36180905  0.37185930  0.38190955  0.39195980  0.40201005  0.41206030  0.42211055  0.43216080  0.44221106  0.45226131  0.46231156  0.47236181  0.48241206  0.49246231  0.50251256  0.51256281  0.52261307  0.53266332  0.54271357  0.55276382  0.56281407  0.57286432  0.58291457  0.59296482  0.60301508  0.61306533  0.62311558  0.63316583  0.64321608  0.65326633  0.66331658  0.67336683  0.68341709  0.69346734  0.70351759  0.71356784  0.72361809  0.73366834  0.74371859  0.75376884  0.76381910  0.77386935  0.78391960  0.79396985  0.80402010  0.81407035  0.82412060  0.83417085  0.84422111  0.85427136  0.86432161  0.87437186  0.88442211  0.89447236  0.90452261  0.91457286  0.92462312  0.93467337  0.